# vtk DataFile Version 5.1
vtk output
ASCII
DATASET STRUCTURED_GRID
DIMENSIONS 31 31 16
POINTS 15376 double
-60 -60 -60 -56 -60 -60 -52 -60 -60 
-48 -60 -60 -44 -60 -60 -40 -60 -60 
-36 -60 -60 -32 -60 -60 -28 -60 -60 
-24 -60 -60 -20 -60 -60 -16 -60 -60 
-12 -60 -60 -8 -60 -60 -4 -60 -60 
0 -60 -60 4 -60 -60 8 -60 -60 
12 -60 -60 16 -60 -60 20 -60 -60 
24 -60 -60 28 -60 -60 32 -60 -60 
36 -60 -60 40 -60 -60 44 -60 -60 
48 -60 -60 52 -60 -60 56 -60 -60 
60 -60 -60 -60 -56 -60 -56 -56 -60 
-52 -56 -60 -48 -56 -60 -44 -56 -60 
-40 -56 -60 -36 -56 -60 -32 -56 -60 
-28 -56 -60 -24 -56 -60 -20 -56 -60 
-16 -56 -60 -12 -56 -60 -8 -56 -60 
-4 -56 -60 0 -56 -60 4 -56 -60 
8 -56 -60 12 -56 -60 16 -56 -60 
20 -56 -60 24 -56 -60 28 -56 -60 
32 -56 -60 36 -56 -60 40 -56 -60 
44 -56 -60 48 -56 -60 52 -56 -60 
56 -56 -60 60 -56 -60 -60 -52 -60 
-56 -52 -60 -52 -52 -60 -48 -52 -60 
-44 -52 -60 -40 -52 -60 -36 -52 -60 
-32 -52 -60 -28 -52 -60 -24 -52 -60 
-20 -52 -60 -16 -52 -60 -12 -52 -60 
-8 -52 -60 -4 -52 -60 0 -52 -60 
4 -52 -60 8 -52 -60 12 -52 -60 
16 -52 -60 20 -52 -60 24 -52 -60 
28 -52 -60 32 -52 -60 36 -52 -60 
40 -52 -60 44 -52 -60 48 -52 -60 
52 -52 -60 56 -52 -60 60 -52 -60 
-60 -48 -60 -56 -48 -60 -52 -48 -60 
-48 -48 -60 -44 -48 -60 -40 -48 -60 
-36 -48 -60 -32 -48 -60 -28 -48 -60 
-24 -48 -60 -20 -48 -60 -16 -48 -60 
-12 -48 -60 -8 -48 -60 -4 -48 -60 
0 -48 -60 4 -48 -60 8 -48 -60 
12 -48 -60 16 -48 -60 20 -48 -60 
24 -48 -60 28 -48 -60 32 -48 -60 
36 -48 -60 40 -48 -60 44 -48 -60 
48 -48 -60 52 -48 -60 56 -48 -60 
60 -48 -60 -60 -44 -60 -56 -44 -60 
-52 -44 -60 -48 -44 -60 -44 -44 -60 
-40 -44 -60 -36 -44 -60 -32 -44 -60 
-28 -44 -60 -24 -44 -60 -20 -44 -60 
-16 -44 -60 -12 -44 -60 -8 -44 -60 
-4 -44 -60 0 -44 -60 4 -44 -60 
8 -44 -60 12 -44 -60 16 -44 -60 
20 -44 -60 24 -44 -60 28 -44 -60 
32 -44 -60 36 -44 -60 40 -44 -60 
44 -44 -60 48 -44 -60 52 -44 -60 
56 -44 -60 60 -44 -60 -60 -40 -60 
-56 -40 -60 -52 -40 -60 -48 -40 -60 
-44 -40 -60 -40 -40 -60 -36 -40 -60 
-32 -40 -60 -28 -40 -60 -24 -40 -60 
-20 -40 -60 -16 -40 -60 -12 -40 -60 
-8 -40 -60 -4 -40 -60 0 -40 -60 
4 -40 -60 8 -40 -60 12 -40 -60 
16 -40 -60 20 -40 -60 24 -40 -60 
28 -40 -60 32 -40 -60 36 -40 -60 
40 -40 -60 44 -40 -60 48 -40 -60 
52 -40 -60 56 -40 -60 60 -40 -60 
-60 -36 -60 -56 -36 -60 -52 -36 -60 
-48 -36 -60 -44 -36 -60 -40 -36 -60 
-36 -36 -60 -32 -36 -60 -28 -36 -60 
-24 -36 -60 -20 -36 -60 -16 -36 -60 
-12 -36 -60 -8 -36 -60 -4 -36 -60 
0 -36 -60 4 -36 -60 8 -36 -60 
12 -36 -60 16 -36 -60 20 -36 -60 
24 -36 -60 28 -36 -60 32 -36 -60 
36 -36 -60 40 -36 -60 44 -36 -60 
48 -36 -60 52 -36 -60 56 -36 -60 
60 -36 -60 -60 -32 -60 -56 -32 -60 
-52 -32 -60 -48 -32 -60 -44 -32 -60 
-40 -32 -60 -36 -32 -60 -32 -32 -60 
-28 -32 -60 -24 -32 -60 -20 -32 -60 
-16 -32 -60 -12 -32 -60 -8 -32 -60 
-4 -32 -60 0 -32 -60 4 -32 -60 
8 -32 -60 12 -32 -60 16 -32 -60 
20 -32 -60 24 -32 -60 28 -32 -60 
32 -32 -60 36 -32 -60 40 -32 -60 
44 -32 -60 48 -32 -60 52 -32 -60 
56 -32 -60 60 -32 -60 -60 -28 -60 
-56 -28 -60 -52 -28 -60 -48 -28 -60 
-44 -28 -60 -40 -28 -60 -36 -28 -60 
-32 -28 -60 -28 -28 -60 -24 -28 -60 
-20 -28 -60 -16 -28 -60 -12 -28 -60 
-8 -28 -60 -4 -28 -60 0 -28 -60 
4 -28 -60 8 -28 -60 12 -28 -60 
16 -28 -60 20 -28 -60 24 -28 -60 
28 -28 -60 32 -28 -60 36 -28 -60 
40 -28 -60 44 -28 -60 48 -28 -60 
52 -28 -60 56 -28 -60 60 -28 -60 
-60 -24 -60 -56 -24 -60 -52 -24 -60 
-48 -24 -60 -44 -24 -60 -40 -24 -60 
-36 -24 -60 -32 -24 -60 -28 -24 -60 
-24 -24 -60 -20 -24 -60 -16 -24 -60 
-12 -24 -60 -8 -24 -60 -4 -24 -60 
0 -24 -60 4 -24 -60 8 -24 -60 
12 -24 -60 16 -24 -60 20 -24 -60 
24 -24 -60 28 -24 -60 32 -24 -60 
36 -24 -60 40 -24 -60 44 -24 -60 
48 -24 -60 52 -24 -60 56 -24 -60 
60 -24 -60 -60 -20 -60 -56 -20 -60 
-52 -20 -60 -48 -20 -60 -44 -20 -60 
-40 -20 -60 -36 -20 -60 -32 -20 -60 
-28 -20 -60 -24 -20 -60 -20 -20 -60 
-16 -20 -60 -12 -20 -60 -8 -20 -60 
-4 -20 -60 0 -20 -60 4 -20 -60 
8 -20 -60 12 -20 -60 16 -20 -60 
20 -20 -60 24 -20 -60 28 -20 -60 
32 -20 -60 36 -20 -60 40 -20 -60 
44 -20 -60 48 -20 -60 52 -20 -60 
56 -20 -60 60 -20 -60 -60 -16 -60 
-56 -16 -60 -52 -16 -60 -48 -16 -60 
-44 -16 -60 -40 -16 -60 -36 -16 -60 
-32 -16 -60 -28 -16 -60 -24 -16 -60 
-20 -16 -60 -16 -16 -60 -12 -16 -60 
-8 -16 -60 -4 -16 -60 0 -16 -60 
4 -16 -60 8 -16 -60 12 -16 -60 
16 -16 -60 20 -16 -60 24 -16 -60 
28 -16 -60 32 -16 -60 36 -16 -60 
40 -16 -60 44 -16 -60 48 -16 -60 
52 -16 -60 56 -16 -60 60 -16 -60 
-60 -12 -60 -56 -12 -60 -52 -12 -60 
-48 -12 -60 -44 -12 -60 -40 -12 -60 
-36 -12 -60 -32 -12 -60 -28 -12 -60 
-24 -12 -60 -20 -12 -60 -16 -12 -60 
-12 -12 -60 -8 -12 -60 -4 -12 -60 
0 -12 -60 4 -12 -60 8 -12 -60 
12 -12 -60 16 -12 -60 20 -12 -60 
24 -12 -60 28 -12 -60 32 -12 -60 
36 -12 -60 40 -12 -60 44 -12 -60 
48 -12 -60 52 -12 -60 56 -12 -60 
60 -12 -60 -60 -8 -60 -56 -8 -60 
-52 -8 -60 -48 -8 -60 -44 -8 -60 
-40 -8 -60 -36 -8 -60 -32 -8 -60 
-28 -8 -60 -24 -8 -60 -20 -8 -60 
-16 -8 -60 -12 -8 -60 -8 -8 -60 
-4 -8 -60 0 -8 -60 4 -8 -60 
8 -8 -60 12 -8 -60 16 -8 -60 
20 -8 -60 24 -8 -60 28 -8 -60 
32 -8 -60 36 -8 -60 40 -8 -60 
44 -8 -60 48 -8 -60 52 -8 -60 
56 -8 -60 60 -8 -60 -60 -4 -60 
-56 -4 -60 -52 -4 -60 -48 -4 -60 
-44 -4 -60 -40 -4 -60 -36 -4 -60 
-32 -4 -60 -28 -4 -60 -24 -4 -60 
-20 -4 -60 -16 -4 -60 -12 -4 -60 
-8 -4 -60 -4 -4 -60 0 -4 -60 
4 -4 -60 8 -4 -60 12 -4 -60 
16 -4 -60 20 -4 -60 24 -4 -60 
28 -4 -60 32 -4 -60 36 -4 -60 
40 -4 -60 44 -4 -60 48 -4 -60 
52 -4 -60 56 -4 -60 60 -4 -60 
-60 0 -60 -56 0 -60 -52 0 -60 
-48 0 -60 -44 0 -60 -40 0 -60 
-36 0 -60 -32 0 -60 -28 0 -60 
-24 0 -60 -20 0 -60 -16 0 -60 
-12 0 -60 -8 0 -60 -4 0 -60 
0 0 -60 4 0 -60 8 0 -60 
12 0 -60 16 0 -60 20 0 -60 
24 0 -60 28 0 -60 32 0 -60 
36 0 -60 40 0 -60 44 0 -60 
48 0 -60 52 0 -60 56 0 -60 
60 0 -60 -60 4 -60 -56 4 -60 
-52 4 -60 -48 4 -60 -44 4 -60 
-40 4 -60 -36 4 -60 -32 4 -60 
-28 4 -60 -24 4 -60 -20 4 -60 
-16 4 -60 -12 4 -60 -8 4 -60 
-4 4 -60 0 4 -60 4 4 -60 
8 4 -60 12 4 -60 16 4 -60 
20 4 -60 24 4 -60 28 4 -60 
32 4 -60 36 4 -60 40 4 -60 
44 4 -60 48 4 -60 52 4 -60 
56 4 -60 60 4 -60 -60 8 -60 
-56 8 -60 -52 8 -60 -48 8 -60 
-44 8 -60 -40 8 -60 -36 8 -60 
-32 8 -60 -28 8 -60 -24 8 -60 
-20 8 -60 -16 8 -60 -12 8 -60 
-8 8 -60 -4 8 -60 0 8 -60 
4 8 -60 8 8 -60 12 8 -60 
16 8 -60 20 8 -60 24 8 -60 
28 8 -60 32 8 -60 36 8 -60 
40 8 -60 44 8 -60 48 8 -60 
52 8 -60 56 8 -60 60 8 -60 
-60 12 -60 -56 12 -60 -52 12 -60 
-48 12 -60 -44 12 -60 -40 12 -60 
-36 12 -60 -32 12 -60 -28 12 -60 
-24 12 -60 -20 12 -60 -16 12 -60 
-12 12 -60 -8 12 -60 -4 12 -60 
0 12 -60 4 12 -60 8 12 -60 
12 12 -60 16 12 -60 20 12 -60 
24 12 -60 28 12 -60 32 12 -60 
36 12 -60 40 12 -60 44 12 -60 
48 12 -60 52 12 -60 56 12 -60 
60 12 -60 -60 16 -60 -56 16 -60 
-52 16 -60 -48 16 -60 -44 16 -60 
-40 16 -60 -36 16 -60 -32 16 -60 
-28 16 -60 -24 16 -60 -20 16 -60 
-16 16 -60 -12 16 -60 -8 16 -60 
-4 16 -60 0 16 -60 4 16 -60 
8 16 -60 12 16 -60 16 16 -60 
20 16 -60 24 16 -60 28 16 -60 
32 16 -60 36 16 -60 40 16 -60 
44 16 -60 48 16 -60 52 16 -60 
56 16 -60 60 16 -60 -60 20 -60 
-56 20 -60 -52 20 -60 -48 20 -60 
-44 20 -60 -40 20 -60 -36 20 -60 
-32 20 -60 -28 20 -60 -24 20 -60 
-20 20 -60 -16 20 -60 -12 20 -60 
-8 20 -60 -4 20 -60 0 20 -60 
4 20 -60 8 20 -60 12 20 -60 
16 20 -60 20 20 -60 24 20 -60 
28 20 -60 32 20 -60 36 20 -60 
40 20 -60 44 20 -60 48 20 -60 
52 20 -60 56 20 -60 60 20 -60 
-60 24 -60 -56 24 -60 -52 24 -60 
-48 24 -60 -44 24 -60 -40 24 -60 
-36 24 -60 -32 24 -60 -28 24 -60 
-24 24 -60 -20 24 -60 -16 24 -60 
-12 24 -60 -8 24 -60 -4 24 -60 
0 24 -60 4 24 -60 8 24 -60 
12 24 -60 16 24 -60 20 24 -60 
24 24 -60 28 24 -60 32 24 -60 
36 24 -60 40 24 -60 44 24 -60 
48 24 -60 52 24 -60 56 24 -60 
60 24 -60 -60 28 -60 -56 28 -60 
-52 28 -60 -48 28 -60 -44 28 -60 
-40 28 -60 -36 28 -60 -32 28 -60 
-28 28 -60 -24 28 -60 -20 28 -60 
-16 28 -60 -12 28 -60 -8 28 -60 
-4 28 -60 0 28 -60 4 28 -60 
8 28 -60 12 28 -60 16 28 -60 
20 28 -60 24 28 -60 28 28 -60 
32 28 -60 36 28 -60 40 28 -60 
44 28 -60 48 28 -60 52 28 -60 
56 28 -60 60 28 -60 -60 32 -60 
-56 32 -60 -52 32 -60 -48 32 -60 
-44 32 -60 -40 32 -60 -36 32 -60 
-32 32 -60 -28 32 -60 -24 32 -60 
-20 32 -60 -16 32 -60 -12 32 -60 
-8 32 -60 -4 32 -60 0 32 -60 
4 32 -60 8 32 -60 12 32 -60 
16 32 -60 20 32 -60 24 32 -60 
28 32 -60 32 32 -60 36 32 -60 
40 32 -60 44 32 -60 48 32 -60 
52 32 -60 56 32 -60 60 32 -60 
-60 36 -60 -56 36 -60 -52 36 -60 
-48 36 -60 -44 36 -60 -40 36 -60 
-36 36 -60 -32 36 -60 -28 36 -60 
-24 36 -60 -20 36 -60 -16 36 -60 
-12 36 -60 -8 36 -60 -4 36 -60 
0 36 -60 4 36 -60 8 36 -60 
12 36 -60 16 36 -60 20 36 -60 
24 36 -60 28 36 -60 32 36 -60 
36 36 -60 40 36 -60 44 36 -60 
48 36 -60 52 36 -60 56 36 -60 
60 36 -60 -60 40 -60 -56 40 -60 
-52 40 -60 -48 40 -60 -44 40 -60 
-40 40 -60 -36 40 -60 -32 40 -60 
-28 40 -60 -24 40 -60 -20 40 -60 
-16 40 -60 -12 40 -60 -8 40 -60 
-4 40 -60 0 40 -60 4 40 -60 
8 40 -60 12 40 -60 16 40 -60 
20 40 -60 24 40 -60 28 40 -60 
32 40 -60 36 40 -60 40 40 -60 
44 40 -60 48 40 -60 52 40 -60 
56 40 -60 60 40 -60 -60 44 -60 
-56 44 -60 -52 44 -60 -48 44 -60 
-44 44 -60 -40 44 -60 -36 44 -60 
-32 44 -60 -28 44 -60 -24 44 -60 
-20 44 -60 -16 44 -60 -12 44 -60 
-8 44 -60 -4 44 -60 0 44 -60 
4 44 -60 8 44 -60 12 44 -60 
16 44 -60 20 44 -60 24 44 -60 
28 44 -60 32 44 -60 36 44 -60 
40 44 -60 44 44 -60 48 44 -60 
52 44 -60 56 44 -60 60 44 -60 
-60 48 -60 -56 48 -60 -52 48 -60 
-48 48 -60 -44 48 -60 -40 48 -60 
-36 48 -60 -32 48 -60 -28 48 -60 
-24 48 -60 -20 48 -60 -16 48 -60 
-12 48 -60 -8 48 -60 -4 48 -60 
0 48 -60 4 48 -60 8 48 -60 
12 48 -60 16 48 -60 20 48 -60 
24 48 -60 28 48 -60 32 48 -60 
36 48 -60 40 48 -60 44 48 -60 
48 48 -60 52 48 -60 56 48 -60 
60 48 -60 -60 52 -60 -56 52 -60 
-52 52 -60 -48 52 -60 -44 52 -60 
-40 52 -60 -36 52 -60 -32 52 -60 
-28 52 -60 -24 52 -60 -20 52 -60 
-16 52 -60 -12 52 -60 -8 52 -60 
-4 52 -60 0 52 -60 4 52 -60 
8 52 -60 12 52 -60 16 52 -60 
20 52 -60 24 52 -60 28 52 -60 
32 52 -60 36 52 -60 40 52 -60 
44 52 -60 48 52 -60 52 52 -60 
[...]
CELL_DATA 13500
FIELD FieldData 1
tritium_production 1 13500 double
3.7792560988e-10 3.5257607797e-11 0 2.078233853e-10 7.0202344594e-12 1.7762217816e-10 4.6722934493e-09 1.2956582598e-08 4.9971159504e-09 
2.910983279e-09 9.3390260195e-09 8.202095968e-09 5.3809647117e-09 1.6485997114e-10 1.3805816927e-09 4.1082602014e-09 1.8924232951e-10 0 
0 0 1.4515247736e-09 3.8305353369e-09 1.9749428402e-09 2.5354537018e-09 3.6397428165e-10 0 5.6592874366e-10 
9.1424293723e-10 1.7682489779e-09 8.1102957016e-09 3.2944040381e-10 2.7691792681e-10 0 0 3.5517835378e-11 3.4227912456e-10 
3.2379916478e-09 7.5272676646e-09 1.7409555174e-09 1.0449964832e-08 0 5.0967933667e-09 9.4772513829e-09 5.4033366707e-09 1.1076148384e-08 
1.3409234659e-09 4.3702362437e-10 3.7547543233e-10 0 3.4330800705e-10 1.7890836145e-09 2.5970712754e-09 1.6852579842e-09 1.3409817815e-09 
0 9.0913023438e-11 3.5068092472e-10 4.4845528534e-10 1.5772157837e-09 1.1915478854e-09 1.534175553e-09 9.78404374e-10 8.9189319175e-10 
9.67107375e-09 2.2754479996e-09 2.3852757282e-09 1.4814004364e-09 3.0807824162e-10 2.1577164738e-09 4.5705150784e-09 9.3558571287e-10 1.5294739799e-09 
6.3699591884e-09 9.068043084e-09 5.8712458881e-09 6.660883135e-09 4.5146834227e-09 3.0457604003e-09 2.7705083807e-09 1.6741247974e-08 6.0764695162e-09 
1.28645748e-09 1.4105247524e-09 3.4696301579e-10 2.1945108986e-09 4.167758595e-09 3.4632774868e-09 6.8527163288e-09 1.0858036465e-08 6.7129417748e-10 
1.0635090265e-09 1.3896793477e-09 0 1.6648602917e-09 4.2392833781e-09 1.1798770668e-08 1.1021179395e-08 2.3990502553e-09 3.5669804638e-09 
6.2480984676e-09 1.2537560339e-09 5.6077080028e-09 8.6507729774e-09 1.5581164511e-09 6.2664796475e-09 4.4385193085e-09 2.1967057954e-08 6.8874216872e-10 
1.2278117944e-08 8.3005703441e-09 5.006527052e-09 1.1130707933e-08 7.6986934183e-09 4.9331022652e-09 3.4525745601e-09 2.0836464414e-09 8.2111958275e-09 
5.6172844216e-09 1.7701636047e-08 2.275413902e-10 1.4538875675e-09 3.0842240896e-09 8.6439112769e-10 9.3381209383e-10 3.0346445219e-09 3.2212233761e-09 
2.4826465816e-09 3.264693949e-09 3.1036854664e-09 6.6822124338e-09 1.206814846e-08 5.1934800988e-09 1.6225437871e-09 1.5056777094e-09 6.3603257266e-09 
2.117968635e-09 2.2950585714e-09 1.0729162982e-08 6.4760907936e-11 8.8100118473e-09 2.0317953687e-08 1.2590731779e-08 1.9899174906e-08 4.1270951594e-09 
6.0224234635e-09 1.0047998984e-08 5.8368087792e-09 1.1867240942e-09 2.9260848422e-09 1.5132763779e-09 1.2205931878e-09 1.0832386537e-09 3.2303230898e-09 
7.5036157806e-09 6.2082686361e-09 2.960793621e-09 3.0518085347e-09 7.6061395702e-09 2.1584894461e-09 1.6233967533e-09 1.7487172192e-09 2.3238561025e-09 
4.3293290031e-09 5.0806091072e-09 5.2673502812e-09 9.7276628238e-09 2.5885670013e-09 9.911314458e-09 1.3710264242e-08 1.3505468258e-08 6.8368937916e-09 
1.9955190868e-08 5.8850212848e-09 2.223861961e-09 3.0822996884e-09 4.729006836e-09 2.7873198741e-10 1.7184172678e-09 6.0959356838e-09 4.5227839602e-09 
0 0 8.3392325656e-10 1.7689838766e-09 2.9300307424e-09 7.2336475498e-09 1.2038553703e-08 7.8060782984e-09 1.3021740862e-08 
1.4741918755e-08 6.0396117979e-09 2.3030004399e-09 2.0814062107e-09 3.8002836918e-09 9.4982594444e-09 7.2579516594e-09 1.6275251093e-08 5.0255140654e-09 
7.7872229819e-09 1.898491178e-10 9.3104742071e-09 4.5769208701e-09 4.1272816766e-09 7.0018033589e-09 4.4642848752e-09 3.1280518207e-09 5.4085802807e-10 
2.9624573913e-09 4.1133304724e-09 2.5690615382e-09 1.0826486712e-09 5.119801232e-11 1.7024937012e-09 2.4649448405e-09 1.1583776586e-08 7.8624375239e-09 
8.1031930293e-09 4.9856200064e-09 1.01074939e-08 5.9024005869e-09 6.2237779303e-09 9.36742956e-09 1.8034434877e-08 5.0481906627e-09 1.9809614716e-09 
4.955347329e-09 7.3738726787e-09 4.3445327133e-09 7.7636342133e-09 8.8161980144e-09 9.6639880648e-09 8.6606343231e-09 1.2469598188e-08 3.3666960795e-09 
3.6285244951e-09 3.6195336468e-09 3.8455661624e-09 7.5982148012e-09 1.0816126468e-08 8.3209485583e-10 4.3952335504e-09 6.4006382755e-09 1.2563968557e-09 
5.2171469325e-10 6.4896497064e-09 5.0511664867e-09 7.1361451877e-09 4.798405751e-09 5.6386779217e-09 6.9752062729e-09 4.0038856243e-09 8.3618061841e-09 
4.3007423026e-09 8.068767839e-09 1.2608038993e-08 1.3115936469e-09 5.1366552938e-09 1.6685122021e-08 1.0259500824e-08 2.944539356e-09 6.3652061782e-09 
1.4010329992e-08 4.5369750637e-09 3.5131149528e-09 5.1037792787e-09 4.6036505456e-09 6.1091472063e-09 3.0950476571e-09 9.9976060898e-09 5.889636143e-09 
8.7446842839e-09 6.9136650994e-09 1.3514000461e-09 2.879026786e-09 1.2762553391e-08 1.5177214706e-08 5.1906195033e-09 6.4418238971e-09 2.9762076852e-09 
7.2712907171e-09 3.4298773532e-09 7.5927817999e-09 8.0461487055e-09 2.9762808644e-09 1.0774588056e-08 6.92798129e-09 8.0318094812e-09 3.8357550523e-09 
1.4456175571e-08 4.9727621581e-09 5.2093130325e-09 9.2528527684e-09 8.0120463087e-09 3.9481582712e-09 1.0983213651e-08 1.9851912232e-09 4.454498304e-09 
2.0116418219e-09 8.0610711979e-09 5.5983235252e-09 6.3898028497e-10 3.4580661362e-09 5.1688057345e-10 7.2595917538e-09 1.2024523889e-09 7.0573942417e-09 
4.168070815e-09 3.580297093e-10 2.6325411315e-09 3.9638769906e-09 7.5606280206e-09 9.8551088111e-09 1.7498761468e-08 1.1353020601e-08 5.0522391185e-09 
6.7081017572e-09 2.4654433368e-08 2.6681994029e-09 1.8448898076e-09 1.115625e-08 9.391640681e-09 6.6319688342e-09 5.7456449362e-09 1.1994920964e-08 
2.3358576441e-08 2.2761511649e-09 1.1176535602e-09 3.56921476e-09 7.4830732301e-09 9.4808011099e-09 1.3523123252e-09 5.7096228106e-09 6.3430812178e-09 
1.1568423886e-08 3.8663752355e-09 1.4381271365e-08 4.9808759486e-09 1.165692159e-09 3.7389696586e-09 7.6672259968e-09 9.4085302642e-09 2.329472166e-08 
1.2751349772e-08 7.5409712311e-09 1.197444018e-08 3.4308827888e-09 6.4655200585e-09 2.6359139782e-09 1.6456776673e-09 2.4737007551e-09 8.1579696286e-09 
6.1035201439e-09 5.3748529758e-09 7.3864435169e-09 1.401079309e-08 7.7085982843e-09 4.9386661776e-09 6.1893572883e-09 4.4822587214e-09 1.125401186e-08 
6.8657714017e-09 1.2848807777e-08 5.3029717705e-09 8.4453009394e-09 1.1435256417e-08 1.3452346025e-08 1.1773946935e-08 1.4593730104e-08 1.2004783956e-08 
8.0554497915e-09 8.5017277311e-09 9.3869779595e-09 4.6916118576e-09 7.2804253507e-09 3.4145117697e-08 2.6618083766e-08 1.7774628116e-08 6.4654241519e-09 
3.1374652975e-09 9.6983060254e-09 1.3673334145e-08 6.9654812125e-09 8.5702040048e-09 1.6616173045e-08 4.9606219753e-09 1.8066954157e-08 6.9396149811e-09 
1.3752700735e-09 5.2709888936e-09 2.3193335285e-09 4.1108022711e-09 2.2845690475e-09 9.7034017818e-09 1.3436630788e-08 3.8334630474e-09 6.1905721306e-09 
1.0251396113e-08 1.0022157108e-08 1.5043210385e-08 1.2453848331e-08 1.0515628763e-08 1.9808015046e-08 1.1977181057e-08 2.4175538159e-08 1.8966105472e-08 
2.0060041943e-08 7.2109369733e-09 3.5459660427e-09 3.0106580929e-09 5.0288120228e-09 5.8044649007e-09 8.7081061042e-09 9.7983088888e-09 1.5907183791e-08 
1.7631503465e-08 1.7077276891e-08 3.7065743562e-09 6.2115568097e-09 1.0493418981e-08 1.5179685332e-08 3.0025974716e-09 5.221093425e-09 4.9057485104e-09 
5.1065543018e-09 1.8714634955e-09 1.7414145629e-08 1.4174673164e-08 9.6405994014e-09 1.4585426828e-08 1.3918519267e-08 1.7467521934e-08 1.3217786425e-08 
5.9373302758e-09 6.6892955111e-09 7.8053710655e-09 1.2139803903e-08 4.648900595e-09 8.154106467e-09 6.212777981e-09 1.0464391772e-08 1.1398881171e-08 
2.5665162697e-09 7.857465891e-09 5.8593952049e-09 3.2424698808e-09 6.359037473e-09 6.2310145708e-09 1.2787401597e-08 6.2441015561e-09 5.4625790283e-09 
4.5960612998e-09 2.9194548991e-09 3.0781048067e-09 5.9360733848e-09 2.3627542923e-09 1.7633253738e-09 2.3309183964e-09 8.8832113183e-09 9.5354953477e-09 
1.2882665752e-08 1.6526410948e-08 2.8555669625e-09 2.6808911901e-09 9.2078667721e-09 3.0995851537e-08 1.2177191661e-08 6.0910159377e-09 1.1367309858e-08 
1.3042582573e-08 1.5084930141e-08 1.2602689324e-08 9.0723928401e-09 8.4826968766e-09 8.4137559772e-09 1.5018726655e-08 7.6348545973e-09 8.7439722525e-09 
7.9793487456e-09 4.7565547122e-09 4.5803127547e-09 5.3936224657e-09 6.2181522751e-09 3.6490636805e-09 6.2640053291e-09 6.965480136e-09 1.758668829e-08 
3.6360263587e-09 1.0023401385e-08 1.1871238065e-08 1.6890023613e-08 1.420237257e-08 1.549157752e-08 8.5835531118e-09 1.4736695889e-08 1.7762672573e-08 
2.3756977943e-08 3.5472443288e-09 1.3748591306e-08 5.697424523e-09 1.0460504212e-08 5.0636833284e-09 1.7853951428e-08 7.0085941692e-09 5.7899066227e-09 
3.7167484909e-09 6.0572155756e-09 2.434781476e-10 0 3.3077490173e-09 2.4417822219e-09 5.5682408547e-09 6.8885354144e-09 5.9653997365e-09 
1.033139015e-08 6.2895869773e-09 5.6855535288e-09 3.122372815e-09 1.2899411348e-08 2.3426891703e-08 9.4086712092e-09 8.5329867116e-09 1.584501186e-08 
9.2996079954e-09 2.1296721542e-08 8.6386265024e-09 1.4599356612e-08 7.8900940414e-09 2.8491361463e-08 2.2919665067e-08 1.6272039715e-08 5.240810745e-09 
1.5526113289e-08 2.780885457e-09 3.0794579868e-09 8.2602283051e-09 3.3082430131e-09 1.7987711472e-10 6.770957066e-10 3.4068543279e-10 2.6345156071e-09 
2.538952796e-09 2.9899316354e-09 4.5315002678e-09 7.7545003879e-09 5.6066424623e-09 2.0879365088e-09 6.2511415421e-09 5.4492833286e-09 1.2218738874e-08 
3.1999804259e-09 7.1047894015e-09 8.319173288e-09 9.1093008395e-09 1.1642496704e-08 1.2885611561e-08 1.4081824399e-08 1.8348406419e-08 2.3021078992e-08 
1.8263394275e-08 7.0393164266e-09 2.0127853583e-08 5.9778321338e-09 3.3478455328e-09 1.0535226371e-08 1.0237659519e-08 2.7703682319e-09 0 
3.6904274232e-10 2.5952228441e-09 2.8395479023e-10 5.1048944265e-09 6.4999372732e-09 5.1146618704e-09 5.049587377e-09 7.0712774607e-09 1.5189384571e-09 
6.6260752285e-09 1.8662421625e-09 8.9434329958e-09 5.283667291e-09 2.1911374615e-08 1.7003119123e-08 1.8833980112e-08 9.7902895715e-09 1.2821194868e-08 
4.8340208735e-09 9.4314092003e-09 3.7691403736e-09 1.0795200703e-08 6.9428185978e-09 7.6648045663e-09 4.6283646785e-09 2.6389699003e-09 1.0471370251e-08 
7.7794725939e-09 2.1343927843e-09 4.5097691754e-09 4.200040963e-09 8.710849382e-09 3.4085602509e-10 3.952179654e-10 1.4100811012e-09 6.5768546007e-09 
5.180172942e-10 8.9501687183e-10 3.1577969468e-09 4.9529655449e-09 6.4660124256e-09 6.3332079112e-09 2.692816562e-09 1.4447131035e-08 1.315831195e-08 
1.3336437209e-08 7.0537403757e-09 1.2667721867e-08 9.8279946321e-09 1.1884659733e-08 7.4177386364e-09 8.2338096172e-09 8.8877426472e-09 1.0821178341e-08 
5.4206689042e-09 4.6821053456e-09 1.6612873617e-09 4.9929823929e-09 1.054244327e-08 2.1596626175e-09 2.2499581938e-09 5.8564759398e-09 6.6998634073e-09 
5.5713841287e-09 1.0502602493e-08 1.5176105856e-08 1.5120081841e-08 5.0195230304e-09 1.268038267e-08 1.473347174e-08 1.7342911731e-09 5.3172034989e-09 
5.4166963489e-09 1.0902479566e-08 2.1307474554e-08 6.9325002884e-09 9.0355654792e-09 6.6959169275e-09 7.0576872524e-09 8.966404473e-09 1.031596964e-08 
5.1073476831e-09 1.3847970522e-08 3.3064596128e-09 6.3334333873e-09 5.5320668109e-09 2.2166928311e-09 3.9266066105e-09 1.06471186e-08 6.5622219535e-09 
3.3776373093e-09 5.6752088035e-10 1.3047403073e-09 9.1349322573e-10 3.1481588619e-09 6.2343926209e-09 2.0269328666e-08 7.3710029263e-09 1.2486572884e-08 
1.4077222201e-08 2.7440199084e-09 2.9036013963e-09 1.4289080424e-08 1.0429884844e-08 3.1106227755e-09 6.336518137e-09 7.820489895e-09 1.6843295414e-08 
8.2774230143e-09 4.8643413053e-09 5.6753577166e-09 6.5772707729e-09 5.4854826742e-09 1.5240510655e-08 9.4282761967e-09 9.9304561167e-09 1.2359413458e-08 
6.1455301737e-09 4.2101366571e-09 3.486428477e-09 4.9105357235e-09 3.6642538723e-09 2.2380244583e-09 6.5513915962e-10 2.9433350831e-10 1.0642426734e-09 
1.6795043472e-08 8.2387577073e-09 3.637912238e-09 3.3486557872e-09 1.9920254376e-09 4.2435880683e-09 1.1284844013e-08 5.5265590733e-09 1.4001118115e-09 
4.7458151301e-09 6.3536459724e-09 9.4938204007e-09 5.1962658717e-09 9.1394056479e-09 5.9154219982e-09 2.0712704176e-08 4.6054672138e-09 2.0396719415e-08 
6.6287684158e-09 2.6396636941e-09 1.2721931256e-08 4.8918541929e-09 4.1261481716e-09 1.2141677799e-08 5.3520404323e-09 4.1137606816e-09 2.7826436591e-09 
2.6366251229e-10 1.4649076759e-10 7.3280333179e-09 6.3775145537e-09 9.1151163038e-09 3.5369285987e-09 4.33070186e-09 3.4342582944e-09 5.7438121285e-09 
7.6855293206e-09 8.9855934939e-09 1.179621295e-08 9.2242861641e-09 1.0949059145e-08 3.5603504958e-09 2.2418058371e-09 6.3660063554e-09 5.1591127024e-09 
2.7349781093e-09 4.0482865056e-09 6.2039822387e-09 9.2001768006e-09 1.9822492584e-08 4.0851483823e-09 3.0716815714e-09 2.3980771253e-09 2.4515592045e-09 
1.4843216422e-09 1.3031227591e-09 1.0637157891e-09 1.0515714095e-08 1.2723272036e-09 1.8405654264e-09 4.0784406689e-10 7.0038959318e-09 1.1691963195e-09 
1.982187635e-08 8.2402514584e-09 1.020148618e-08 2.6213258145e-09 5.2656435201e-09 1.5619443892e-08 1.8153599407e-09 8.473134531e-09 8.1969285666e-09 
1.1833167887e-08 8.4650487671e-09 7.565433771e-09 1.4615059806e-10 1.0121865201e-09 4.76195565e-09 5.291800119e-09 4.3200538167e-09 5.1831467777e-11 
4.7735622077e-10 4.1517531747e-11 1.9190656594e-09 6.3322463534e-10 1.5585279112e-09 9.081092445e-10 0 2.4094395552e-10 2.2912325563e-09 
8.2392103417e-10 9.1351774576e-09 3.691298173e-09 2.1792335715e-09 9.6655191509e-09 1.2894134894e-09 1.4546794491e-09 7.0231327629e-09 9.1329781858e-09 
1.0946020944e-08 8.5474345813e-10 4.1453665111e-09 5.5932587677e-09 1.055101183e-08 1.0888360318e-08 3.2951704414e-09 5.4738455115e-09 1.0967437265e-08 
6.7040540401e-09 9.7230727725e-09 3.4701110918e-09 1.3055499462e-08 2.5355738319e-09 4.6465876849e-10 2.6931379468e-11 9.7705537858e-10 2.2904902223e-09 
7.842733815e-11 0 9.5707746801e-10 8.6505320713e-10 6.8171500509e-09 9.5339581329e-09 1.8055083609e-09 4.661464691e-09 1.2267637934e-09 
1.7281467921e-09 2.4507792822e-09 4.4386523048e-09 9.0007589902e-09 2.4139168477e-09 4.5144118283e-09 2.0109414283e-09 4.8021293429e-09 5.6364953086e-09 
1.1057512167e-08 1.9771804467e-08 6.9657491335e-09 6.3853855821e-09 1.6277528779e-09 1.5704483824e-09 7.7382103074e-11 7.8015783744e-10 9.9675825482e-10 
1.023924823e-09 3.0182243151e-10 3.0036530256e-10 7.5390000678e-10 1.9842880777e-10 3.0982656429e-09 3.1588103256e-09 9.1426282852e-09 1.0214744613e-08 
6.6631888055e-12 2.8834783113e-10 1.4273406098e-09 2.1944413557e-09 4.7792429225e-09 3.372555472e-09 6.7437304779e-09 6.1049858712e-09 5.1795245602e-09 
2.5065609278e-09 8.3314973065e-10 1.053997318e-08 5.7530110748e-10 1.9330257543e-09 5.6316909152e-09 1.5290784918e-09 2.6849727323e-09 2.0528029203e-09 
8.1772158478e-09 3.3320005155e-09 1.4092504221e-09 6.3691020149e-10 4.5552879078e-10 4.0434954022e-12 5.7929210073e-09 6.0550127362e-09 4.9532004711e-10 
7.6804382093e-11 2.9451007951e-09 2.9485448586e-09 0 0 7.3870749295e-10 6.4008361165e-09 6.6347199248e-09 2.3150409211e-09 
1.1922909181e-08 7.8056276192e-09 1.236149973e-09 2.0023331095e-09 6.4112732726e-10 4.5123994184e-10 2.1512437211e-10 3.539166583e-10 2.6932051757e-09 
1.4248221989e-10 1.1728693042e-09 2.0380803703e-09 1.8243040008e-09 7.4673152906e-09 3.1921248572e-10 1.090239986e-09 7.3760547379e-10 0 
2.2115052832e-09 4.8165067624e-09 1.1766073004e-09 5.7253899805e-09 8.3725948603e-09 6.876711017e-09 5.6646627694e-09 7.1007159565e-09 1.8083699864e-08 
7.7508130914e-09 4.6713588312e-09 1.5500549926e-08 8.0435867429e-09 2.6197199555e-09 8.4177314308e-09 2.9511602823e-09 3.6925713241e-09 5.4922334016e-09 
3.1153251938e-09 2.9324769697e-09 1.2815674481e-08 8.8446259346e-09 3.0436038297e-10 3.5275732163e-09 3.0949350293e-09 2.645084475e-09 1.2546590605e-09 
3.6711863907e-09 7.2095804849e-09 3.2984813127e-10 4.7751736507e-09 2.6448402938e-09 4.7211700135e-10 2.6495366928e-09 7.9244036307e-09 1.1935621041e-08 
3.6095306793e-09 5.6649467905e-09 1.7552483473e-08 4.7055209191e-09 1.334000641e-08 1.4020980483e-08 5.8922322689e-09 3.6135919767e-09 2.1810915227e-08 
1.772848262e-09 5.6799377489e-09 1.5508152937e-09 2.5187427252e-09 1.0976049763e-09 1.181466175e-08 8.3285117768e-09 2.5964008882e-09 1.4927805178e-09 
3.2748426022e-09 5.1082248695e-09 1.0458671579e-08 7.395994881e-09 1.600848515e-08 2.5050885676e-10 1.2469649027e-09 0 3.0691707648e-09 
5.0290441685e-09 9.3745773023e-10 3.2593587715e-09 8.9730831137e-09 1.4683500961e-09 3.3071140442e-09 4.1644129946e-09 1.8998527135e-08 2.2582780698e-09 
2.5774741916e-09 1.0100854737e-08 1.5506588392e-08 6.3880705968e-09 8.4964668706e-09 6.8318719089e-09 2.5130517032e-09 6.4737689747e-09 2.6222226742e-08 
1.1133628138e-08 8.2337731083e-09 4.8285966043e-09 9.6774791421e-09 1.711839556e-08 2.4308568705e-09 3.47655651e-09 1.2462470938e-08 1.1111586289e-09 
6.532540218e-09 5.7500115747e-09 2.081387973e-10 2.8900984006e-09 1.2822830705e-08 8.2422155885e-09 1.0249808795e-08 8.9873622443e-09 3.6356067146e-09 
5.7248603435e-09 4.7728921265e-09 1.2628093215e-08 2.0053994808e-09 6.6504252776e-09 8.111712881e-09 2.0777227554e-08 5.2168697702e-09 5.7758883667e-09 
8.8478963502e-09 1.7326822311e-08 1.5921951502e-08 1.4129432002e-08 1.2909995961e-08 1.3871387762e-09 2.0229365315e-08 6.0937481262e-09 3.8120104861e-09 
5.3975479706e-09 6.3659589736e-09 5.1380424263e-09 8.45915712e-10 6.460013453e-09 7.9441497149e-10 8.3911390884e-10 1.3602396943e-08 5.8011556971e-09 
1.4405331962e-08 1.3167777087e-08 8.1239676264e-09 1.3656527541e-08 1.3484578403e-08 5.6472256041e-09 8.2155178952e-09 9.4517847863e-09 4.8466268104e-09 
2.1384835289e-09 6.2165974434e-09 1.5071824269e-08 1.496304111e-08 1.392075853e-08 1.7444253133e-08 6.7543274935e-09 1.2693674883e-08 1.1564105633e-08 
1.6805672994e-08 8.8473332286e-09 1.1214224286e-08 2.6775512785e-09 9.0405439317e-09 3.2503812976e-09 4.8806954203e-09 8.1718411057e-09 6.3557803488e-09 
1.1969505126e-08 8.2414280644e-09 1.8417207815e-08 1.0753680894e-08 1.370314651e-08 5.7206848707e-09 7.2781001906e-09 1.3621000111e-08 1.2573805213e-08 
1.1817156823e-08 6.0296265387e-09 5.8897367384e-09 8.6188685797e-09 1.0676501491e-08 6.0993550477e-09 1.2343186735e-08 2.1122834698e-08 1.8883255465e-08 
3.8412041765e-09 3.9345965508e-09 1.2368730084e-08 7.9431069035e-09 5.1077254103e-09 5.5920299699e-09 5.011601971e-09 8.8629106577e-09 5.7467832706e-09 
1.0185392917e-09 0 2.9375502309e-09 8.0874924236e-09 7.5529598405e-10 6.3562323772e-09 7.9915379993e-09 1.0009203896e-08 1.3742058223e-08 
6.5776671074e-09 9.3510211887e-09 9.433963833e-09 8.5039805321e-09 1.4348403949e-08 1.7259854932e-08 2.6716829997e-09 1.2461397973e-08 1.3112283539e-08 
7.628657636e-09 9.4649595638e-09 2.3108930795e-08 7.804977572e-09 7.0576344957e-09 2.0910112236e-08 8.8830958543e-09 2.4374192144e-09 2.3904660065e-10 
3.9101663161e-09 1.9215588535e-08 6.0934667213e-09 1.6169220694e-10 8.6313273595e-10 2.9002966562e-09 1.6121355776e-09 6.223175007e-09 1.2706394397e-08 
7.8729604576e-09 5.381687682e-09 1.1213839842e-08 1.3286169455e-08 1.1334828754e-08 1.3497323716e-08 1.2501106135e-08 1.7654486135e-08 8.1012860606e-09 
3.3912394219e-09 2.2273829e-08 2.4128322716e-08 1.5307102614e-08 8.3866958098e-09 1.8142489885e-08 5.4101978194e-09 8.6644622092e-09 1.5935180817e-08 
2.4874456467e-09 3.0563268192e-09 3.4361212658e-09 6.8540319003e-09 1.8702406345e-08 2.6720862848e-09 5.2548244162e-09 4.9077654493e-09 5.4848596081e-09 
1.9894403166e-09 7.0745500858e-09 1.2233278944e-08 7.8997988109e-09 8.4489155436e-09 1.281825084e-08 1.4121137667e-08 1.1586720439e-08 1.1587144999e-08 
6.6126116777e-09 1.9784232478e-08 1.2729984996e-08 8.7110675808e-09 2.2206144937e-08 2.2089019193e-08 6.9832318598e-09 1.1463525713e-08 1.6542397769e-08 
1.012646888e-08 1.0263327087e-08 6.3357079961e-09 1.3017769717e-08 2.7851536573e-09 5.3779384994e-09 7.612536882e-09 8.4129818068e-09 5.6651852215e-09 
2.2147773632e-09 2.0153304472e-08 8.4281024437e-09 3.39725816e-09 5.4803302454e-09 1.9850624178e-08 9.7091564451e-09 1.3394648337e-08 1.7932561785e-08 
1.2410778081e-08 7.7337312983e-09 1.5119108154e-08 3.9239483158e-09 1.4263024452e-08 7.7655615669e-09 2.1749536125e-08 1.6671551633e-08 1.0093001296e-08 